ITEM: TIMESTEP
0
ITEM: NUMBER OF ATOMS
3
ITEM: BOX BOUNDS xx yy zz
0.0 1.0
0.0 1.0
0.0 1.0
ITEM: ATOMS id type xu yu zu
0 1 1.000000000000000 2.000000000000000 3.000000000000000
1 1 1.000000000000000 2.000000000000000 3.000000000000000
2 8 1.000000000000000 2.000000000000000 3.000000000000000
ITEM: TIMESTEP
1
ITEM: NUMBER OF ATOMS
3
ITEM: BOX BOUNDS xx yy zz
0.0 1.0
0.0 1.0
0.0 1.0
ITEM: ATOMS id type xu yu zu
0 1 2.000000000000000 2.000000000000000 3.000000000000000
1 1 2.000000000000000 2.000000000000000 3.000000000000000
2 8 2.000000000000000 2.000000000000000 3.000000000000000
ITEM: TIMESTEP
2
ITEM: NUMBER OF ATOMS
3
ITEM: BOX BOUNDS xx yy zz
0.0 1.0
0.0 1.0
0.0 1.0
ITEM: ATOMS id type xu yu zu
0 1 3.000000000000000 2.000000000000000 3.000000000000000
1 1 3.000000000000000 2.000000000000000 3.000000000000000
2 8 3.000000000000000 2.000000000000000 3.000000000000000
ITEM: TIMESTEP
3
ITEM: NUMBER OF ATOMS
3
ITEM: BOX BOUNDS xx yy zz
0.0 1.0
0.0 1.0
0.0 1.0
ITEM: ATOMS id type xu yu zu
0 1 4.000000000000000 2.000000000000000 3.000000000000000
1 1 4.000000000000000 2.000000000000000 3.000000000000000
2 8 4.000000000000000 2.000000000000000 3.000000000000000
